<?xml version="1.0" encoding="UTF-8"?>

<!-- generated on 2023-11-04 02:32:43 by Eclipse SUMO GUI Version 1.18.0
<configuration xmlns:xsi="http://www.w3.org/2001/XMLSchema-instance" xsi:noNamespaceSchemaLocation="http://sumo.dlr.de/xsd/sumoConfiguration.xsd">

    <input>
        <net-file value="kilis.net.xml"/>
        <route-files value="Rota.rou.xml"/>
    </input>

    <output>
        <tripinfo-output value="tripinfo.trips.xml"/>
        <statistic-output value="statistics.stats.xml"/>
    </output>

    <processing>
        <ignore-route-errors value="true"/>
    </processing>

    <routing>
        <device.rerouting.adaptation-steps value="18"/>
        <device.rerouting.adaptation-interval value="10"/>
    </routing>

    <report>
        <verbose value="true"/>
        <no-step-log value="true"/>
    </report>

</configuration>
-->

<tripinfos xmlns:xsi="http://www.w3.org/2001/XMLSchema-instance" xsi:noNamespaceSchemaLocation="http://sumo.dlr.de/xsd/tripinfo_file.xsd">
    <tripinfo id="Car5" depart="30.00" departLane="5_0_0" departPos="5.10" departSpeed="12.72" departDelay="0.00" arrival="86.00" arrivalLane="1_1_0" arrivalPos="100.00" arrivalSpeed="11.53" duration="56.00" routeLength="600.96" waitingTime="0.00" waitingCount="0" stopTime="0.00" timeLoss="8.36" rerouteNo="1" devices="tripinfo_Car5 routing_Car5" vType="Car" speedFactor="1.06" vaporized=""/>
    <tripinfo id="Motorcycle0" depart="66.00" departLane="9_0_0" departPos="2.30" departSpeed="9.38" departDelay="0.00" arrival="112.00" arrivalLane="1_1_0" arrivalPos="100.00" arrivalSpeed="8.77" duration="46.00" routeLength="402.54" waitingTime="0.00" waitingCount="0" stopTime="0.00" timeLoss="7.91" rerouteNo="1" devices="tripinfo_Motorcycle0 routing_Motorcycle0" vType="Motorcycle" speedFactor="0.94" vaporized=""/>
    <tripinfo id="Car2" depart="74.00" departLane="8_0_0" departPos="5.10" departSpeed="10.30" departDelay="0.00" arrival="117.00" arrivalLane="5_1_0" arrivalPos="100.00" arrivalSpeed="11.36" duration="43.00" routeLength="399.74" waitingTime="1.00" waitingCount="1" stopTime="0.00" timeLoss="8.54" rerouteNo="1" devices="tripinfo_Car2 routing_Car2" vType="Car" speedFactor="1.03" vaporized=""/>
    <tripinfo id="Van11" depart="71.00" departLane="1_0_0" departPos="5.10" departSpeed="12.99" departDelay="0.00" arrival="123.00" arrivalLane="8_1_0" arrivalPos="100.00" arrivalSpeed="10.15" duration="52.00" routeLength="399.77" waitingTime="8.00" waitingCount="1" stopTime="0.00" timeLoss="19.06" rerouteNo="1" devices="tripinfo_Van11 routing_Van11" vType="Van" speedFactor="1.08" vaporized=""/>
    <tripinfo id="Car8" depart="98.00" departLane="1_0_1" departPos="5.10" departSpeed="9.90" departDelay="0.00" arrival="126.00" arrivalLane="1_1_1" arrivalPos="100.00" arrivalSpeed="11.69" duration="28.00" routeLength="199.57" waitingTime="4.00" waitingCount="1" stopTime="0.00" timeLoss="10.86" rerouteNo="0" devices="tripinfo_Car8 routing_Car8" vType="Car" speedFactor="1.05" vaporized=""/>
    <tripinfo id="Car1" depart="68.00" departLane="1_0_0" departPos="5.10" departSpeed="12.12" departDelay="0.00" arrival="149.00" arrivalLane="5_1_0" arrivalPos="100.00" arrivalSpeed="11.24" duration="81.00" routeLength="600.94" waitingTime="20.00" waitingCount="2" stopTime="0.00" timeLoss="31.36" rerouteNo="1" devices="tripinfo_Car1 routing_Car1" vType="Car" speedFactor="1.01" vaporized=""/>
    <tripinfo id="Car6" depart="99.00" departLane="5_0_0" departPos="5.10" departSpeed="10.63" departDelay="0.00" arrival="149.00" arrivalLane="9_1_0" arrivalPos="100.00" arrivalSpeed="8.01" duration="50.00" routeLength="399.79" waitingTime="2.00" waitingCount="1" stopTime="0.00" timeLoss="9.71" rerouteNo="1" devices="tripinfo_Car6 routing_Car6" vType="Car" speedFactor="0.89" vaporized=""/>
    <tripinfo id="Car9" depart="118.00" departLane="6_0_1" departPos="5.10" departSpeed="10.32" departDelay="0.00" arrival="166.00" arrivalLane="5_1_1" arrivalPos="100.00" arrivalSpeed="10.32" duration="48.00" routeLength="214.27" waitingTime="22.00" waitingCount="1" stopTime="0.00" timeLoss="27.24" rerouteNo="0" devices="tripinfo_Car9 routing_Car9" vType="Car" speedFactor="0.94" vaporized=""/>
    <tripinfo id="Car4" depart="96.00" departLane="1_0_1" departPos="5.10" departSpeed="9.97" departDelay="0.00" arrival="184.00" arrivalLane="6_1_1" arrivalPos="100.00" arrivalSpeed="8.41" duration="88.00" routeLength="599.48" waitingTime="13.00" waitingCount="2" stopTime="0.00" timeLoss="26.18" rerouteNo="1" devices="tripinfo_Car4 routing_Car4" vType="Car" speedFactor="0.83" vaporized=""/>
    <tripinfo id="Car7" depart="125.00" departLane="5_0_0" departPos="5.10" departSpeed="10.28" departDelay="0.00" arrival="199.00" arrivalLane="1_1_0" arrivalPos="100.00" arrivalSpeed="10.21" duration="74.00" routeLength="600.96" waitingTime="6.00" waitingCount="1" stopTime="0.00" timeLoss="15.21" rerouteNo="1" devices="tripinfo_Car7 routing_Car7" vType="Car" speedFactor="0.86" vaporized=""/>
    <tripinfo id="Van10" depart="284.00" departLane="1_0_0" departPos="5.10" departSpeed="13.09" departDelay="0.00" arrival="320.00" arrivalLane="8_1_0" arrivalPos="100.00" arrivalSpeed="10.07" duration="36.00" routeLength="399.77" waitingTime="0.00" waitingCount="0" stopTime="0.00" timeLoss="3.17" rerouteNo="1" devices="tripinfo_Van10 routing_Van10" vType="Van" speedFactor="1.09" vaporized=""/>
    <tripinfo id="Car3" depart="299.00" departLane="8_0_0" departPos="5.10" departSpeed="10.26" departDelay="0.00" arrival="365.00" arrivalLane="5_1_0" arrivalPos="100.00" arrivalSpeed="11.30" duration="66.00" routeLength="399.74" waitingTime="22.00" waitingCount="1" stopTime="0.00" timeLoss="30.95" rerouteNo="1" devices="tripinfo_Car3 routing_Car3" vType="Car" speedFactor="1.03" vaporized=""/>
    <tripinfo id="Car20" depart="309.00" departLane="5_0_0" departPos="5.10" departSpeed="12.57" departDelay="0.00" arrival="373.00" arrivalLane="1_1_0" arrivalPos="100.00" arrivalSpeed="11.64" duration="64.00" routeLength="600.96" waitingTime="8.00" waitingCount="1" stopTime="0.00" timeLoss="16.17" rerouteNo="1" devices="tripinfo_Car20 routing_Car20" vType="Car" speedFactor="1.05" vaporized=""/>
    <tripinfo id="Motorcycle16" depart="355.00" departLane="9_0_0" departPos="2.30" departSpeed="9.27" departDelay="0.00" arrival="402.00" arrivalLane="1_1_0" arrivalPos="100.00" arrivalSpeed="10.88" duration="47.00" routeLength="402.54" waitingTime="0.00" waitingCount="0" stopTime="0.00" timeLoss="7.83" rerouteNo="1" devices="tripinfo_Motorcycle16 routing_Motorcycle16" vType="Motorcycle" speedFactor="0.93" vaporized=""/>
    <tripinfo id="Car18" depart="337.00" departLane="1_0_0" departPos="5.10" departSpeed="13.47" departDelay="0.00" arrival="406.00" arrivalLane="5_1_0" arrivalPos="100.00" arrivalSpeed="12.74" duration="69.00" routeLength="600.94" waitingTime="11.00" waitingCount="2" stopTime="0.00" timeLoss="23.48" rerouteNo="1" devices="tripinfo_Car18 routing_Car18" vType="Car" speedFactor="1.12" vaporized=""/>
    <tripinfo id="Motorcycle13" depart="363.00" departLane="8_0_0" departPos="2.30" departSpeed="9.41" departDelay="0.00" arrival="409.00" arrivalLane="5_1_1" arrivalPos="100.00" arrivalSpeed="9.70" duration="46.00" routeLength="402.54" waitingTime="0.00" waitingCount="0" stopTime="0.00" timeLoss="7.40" rerouteNo="1" devices="tripinfo_Motorcycle13 routing_Motorcycle13" vType="Motorcycle" speedFactor="0.94" vaporized=""/>
    <tripinfo id="Truck30" depart="354.00" departLane="1_0_0" departPos="7.20" departSpeed="11.95" departDelay="0.00" arrival="410.00" arrivalLane="8_1_0" arrivalPos="100.00" arrivalSpeed="9.92" duration="56.00" routeLength="397.67" waitingTime="10.00" waitingCount="1" stopTime="0.00" timeLoss="19.95" rerouteNo="1" devices="tripinfo_Truck30 routing_Truck30" vType="Truck" speedFactor="1.00" vaporized=""/>
    <tripinfo id="Car21" depart="357.00" departLane="5_0_0" departPos="5.10" departSpeed="10.54" departDelay="0.00" arrival="431.00" arrivalLane="1_1_0" arrivalPos="100.00" arrivalSpeed="9.90" duration="74.00" routeLength="600.96" waitingTime="8.00" waitingCount="1" stopTime="0.00" timeLoss="16.16" rerouteNo="1" devices="tripinfo_Car21 routing_Car21" vType="Car" speedFactor="0.88" vaporized=""/>
    <tripinfo id="Van25" depart="397.00" departLane="1_0_0" departPos="5.10" departSpeed="11.23" departDelay="0.00" arrival="443.00" arrivalLane="8_1_0" arrivalPos="100.00" arrivalSpeed="8.40" duration="46.00" routeLength="399.77" waitingTime="0.00" waitingCount="0" stopTime="0.00" timeLoss="7.60" rerouteNo="1" devices="tripinfo_Van25 routing_Van25" vType="Van" speedFactor="0.94" vaporized=""/>
    <tripinfo id="Car23" depart="452.00" departLane="9_0_0" departPos="5.10" departSpeed="10.18" departDelay="0.00" arrival="491.00" arrivalLane="1_1_0" arrivalPos="100.00" arrivalSpeed="11.66" duration="39.00" routeLength="399.74" waitingTime="0.00" waitingCount="0" stopTime="0.00" timeLoss="3.48" rerouteNo="1" devices="tripinfo_Car23 routing_Car23" vType="Car" speedFactor="1.02" vaporized=""/>
    <tripinfo id="Motorcycle14" depart="453.00" departLane="8_0_0" departPos="2.30" departSpeed="10.10" departDelay="0.00" arrival="504.00" arrivalLane="5_1_1" arrivalPos="100.00" arrivalSpeed="9.46" duration="51.00" routeLength="402.54" waitingTime="8.00" waitingCount="1" stopTime="0.00" timeLoss="15.75" rerouteNo="1" devices="tripinfo_Motorcycle14 routing_Motorcycle14" vType="Motorcycle" speedFactor="1.01" vaporized=""/>
    <tripinfo id="Truck29" depart="433.00" departLane="1_0_0" departPos="7.20" departSpeed="12.95" departDelay="0.00" arrival="508.00" arrivalLane="5_1_0" arrivalPos="100.00" arrivalSpeed="12.54" duration="75.00" routeLength="598.84" waitingTime="10.00" waitingCount="2" stopTime="0.00" timeLoss="28.56" rerouteNo="1" devices="tripinfo_Truck29 routing_Truck29" vType="Truck" speedFactor="1.08" vaporized=""/>
    <tripinfo id="Van28" depart="480.00" departLane="2_0_1" departPos="5.10" departSpeed="9.08" departDelay="0.00" arrival="523.00" arrivalLane="1_1_1" arrivalPos="100.00" arrivalSpeed="8.71" duration="43.00" routeLength="214.26" waitingTime="13.00" waitingCount="1" stopTime="0.00" timeLoss="19.60" rerouteNo="0" devices="tripinfo_Van28 routing_Van28" vType="Van" speedFactor="0.83" vaporized=""/>
    <tripinfo id="Motorcycle12" depart="455.00" departLane="1_0_0" departPos="2.30" departSpeed="11.70" departDelay="0.00" arrival="537.00" arrivalLane="5_1_0" arrivalPos="100.00" arrivalSpeed="9.04" duration="82.00" routeLength="603.74" waitingTime="19.00" waitingCount="1" stopTime="0.00" timeLoss="30.38" rerouteNo="1" devices="tripinfo_Motorcycle12 routing_Motorcycle12" vType="Motorcycle" speedFactor="0.97" vaporized=""/>
    <tripinfo id="Car19" depart="486.00" departLane="1_0_1" departPos="5.10" departSpeed="10.47" departDelay="0.00" arrival="549.00" arrivalLane="6_1_1" arrivalPos="100.00" arrivalSpeed="9.23" duration="63.00" routeLength="599.48" waitingTime="0.00" waitingCount="0" stopTime="0.00" timeLoss="3.96" rerouteNo="1" devices="tripinfo_Car19 routing_Car19" vType="Car" speedFactor="0.87" vaporized=""/>
    <tripinfo id="Car22" depart="476.00" departLane="5_0_0" departPos="5.10" departSpeed="10.68" departDelay="0.00" arrival="553.00" arrivalLane="1_1_0" arrivalPos="100.00" arrivalSpeed="9.45" duration="77.00" routeLength="600.96" waitingTime="13.00" waitingCount="1" stopTime="0.00" timeLoss="20.58" rerouteNo="1" devices="tripinfo_Car22 routing_Car22" vType="Car" speedFactor="0.89" vaporized=""/>
    <tripinfo id="Van26" depart="494.00" departLane="1_0_1" departPos="5.10" departSpeed="11.01" departDelay="0.00" arrival="567.00" arrivalLane="5_1_0" arrivalPos="100.00" arrivalSpeed="10.65" duration="73.00" routeLength="600.94" waitingTime="10.00" waitingCount="1" stopTime="0.00" timeLoss="17.71" rerouteNo="1" devices="tripinfo_Van26 routing_Van26" vType="Van" speedFactor="0.92" vaporized=""/>
    <tripinfo id="Van27" depart="510.00" departLane="1_0_1" departPos="5.10" departSpeed="11.39" departDelay="0.00" arrival="567.00" arrivalLane="5_1_1" arrivalPos="100.00" arrivalSpeed="10.15" duration="57.00" routeLength="600.94" waitingTime="0.00" waitingCount="0" stopTime="0.00" timeLoss="3.51" rerouteNo="1" devices="tripinfo_Van27 routing_Van27" vType="Van" speedFactor="0.95" vaporized=""/>
    <tripinfo id="Motorcycle15" depart="547.00" departLane="9_0_0" departPos="2.30" departSpeed="11.32" departDelay="0.00" arrival="584.00" arrivalLane="1_1_0" arrivalPos="100.00" arrivalSpeed="11.13" duration="37.00" routeLength="402.54" waitingTime="0.00" waitingCount="0" stopTime="0.00" timeLoss="5.25" rerouteNo="1" devices="tripinfo_Motorcycle15 routing_Motorcycle15" vType="Motorcycle" speedFactor="1.13" vaporized=""/>
    <tripinfo id="Car24" depart="562.00" departLane="6_0_1" departPos="5.10" departSpeed="10.24" departDelay="0.00" arrival="586.00" arrivalLane="5_1_1" arrivalPos="100.00" arrivalSpeed="10.98" duration="24.00" routeLength="214.27" waitingTime="0.00" waitingCount="0" stopTime="0.00" timeLoss="3.13" rerouteNo="0" devices="tripinfo_Car24 routing_Car24" vType="Car" speedFactor="0.93" vaporized=""/>
    <tripinfo id="Car17" depart="574.00" departLane="1_0_0" departPos="5.10" departSpeed="14.14" departDelay="0.00" arrival="633.00" arrivalLane="5_1_0" arrivalPos="100.00" arrivalSpeed="13.44" duration="59.00" routeLength="600.94" waitingTime="2.00" waitingCount="2" stopTime="0.00" timeLoss="15.98" rerouteNo="1" devices="tripinfo_Car17 routing_Car17" vType="Car" speedFactor="1.18" vaporized=""/>
    <tripinfo id="Car36" depart="616.00" departLane="2_0_0" departPos="5.10" departSpeed="12.70" departDelay="0.00" arrival="684.00" arrivalLane="5_1_0" arrivalPos="100.00" arrivalSpeed="13.48" duration="68.00" routeLength="589.18" waitingTime="12.00" waitingCount="2" stopTime="0.00" timeLoss="23.43" rerouteNo="1" devices="tripinfo_Car36 routing_Car36" vType="Car" speedFactor="1.15" vaporized=""/>
    <tripinfo id="Car42" depart="639.00" departLane="5_0_0" departPos="5.10" departSpeed="12.06" departDelay="0.00" arrival="697.00" arrivalLane="1_1_0" arrivalPos="100.00" arrivalSpeed="11.91" duration="58.00" routeLength="600.96" waitingTime="0.00" waitingCount="0" stopTime="0.00" timeLoss="7.87" rerouteNo="1" devices="tripinfo_Car42 routing_Car42" vType="Car" speedFactor="1.01" vaporized=""/>
    <tripinfo id="Motorcycle32" depart="708.00" departLane="2_0_1" departPos="2.30" departSpeed="12.13" departDelay="0.00" arrival="731.00" arrivalLane="1_1_1" arrivalPos="100.00" arrivalSpeed="12.58" duration="23.00" routeLength="217.06" waitingTime="0.00" waitingCount="0" stopTime="0.00" timeLoss="4.84" rerouteNo="0" devices="tripinfo_Motorcycle32 routing_Motorcycle32" vType="Motorcycle" speedFactor="1.10" vaporized=""/>
    <tripinfo id="Car45" depart="700.00" departLane="1_0_1" departPos="5.10" departSpeed="11.68" departDelay="0.00" arrival="740.00" arrivalLane="1_1_1" arrivalPos="100.00" arrivalSpeed="10.43" duration="40.00" routeLength="199.57" waitingTime="17.00" waitingCount="1" stopTime="0.00" timeLoss="21.67" rerouteNo="0" devices="tripinfo_Car45 routing_Car45" vType="Car" speedFactor="0.97" vaporized=""/>
    <tripinfo id="Car39" depart="691.00" departLane="5_0_0" departPos="5.10" departSpeed="12.24" departDelay="0.00" arrival="749.00" arrivalLane="1_1_0" arrivalPos="100.00" arrivalSpeed="12.22" duration="58.00" routeLength="600.96" waitingTime="0.00" waitingCount="0" stopTime="0.00" timeLoss="8.28" rerouteNo="1" devices="tripinfo_Car39 routing_Car39" vType="Car" speedFactor="1.02" vaporized=""/>
    <tripinfo id="Car38" depart="678.00" departLane="1_0_1" departPos="5.10" departSpeed="14.06" departDelay="0.00" arrival="757.00" arrivalLane="6_1_1" arrivalPos="100.00" arrivalSpeed="11.76" duration="79.00" routeLength="599.48" waitingTime="22.00" waitingCount="2" stopTime="0.00" timeLoss="35.18" rerouteNo="1" devices="tripinfo_Car38 routing_Car38" vType="Car" speedFactor="1.17" vaporized=""/>
    <tripinfo id="Car34" depart="678.00" departLane="1_0_0" departPos="5.10" departSpeed="11.94" departDelay="0.00" arrival="758.00" arrivalLane="5_1_0" arrivalPos="100.00" arrivalSpeed="11.12" duration="80.00" routeLength="600.94" waitingTime="17.00" waitingCount="2" stopTime="0.00" timeLoss="28.98" rerouteNo="1" devices="tripinfo_Car34 routing_Car34" vType="Car" speedFactor="0.99" vaporized=""/>
    <tripinfo id="Car33" depart="700.00" departLane="1_0_0" departPos="5.10" departSpeed="14.16" departDelay="0.00" arrival="758.00" arrivalLane="5_1_1" arrivalPos="100.00" arrivalSpeed="13.55" duration="58.00" routeLength="600.94" waitingTime="8.00" waitingCount="1" stopTime="0.00" timeLoss="15.55" rerouteNo="1" devices="tripinfo_Car33 routing_Car33" vType="Car" speedFactor="1.18" vaporized=""/>
    <tripinfo id="Car37" depart="717.00" departLane="1_0_0" departPos="5.10" departSpeed="10.81" departDelay="0.00" arrival="778.00" arrivalLane="5_1_0" arrivalPos="100.00" arrivalSpeed="10.59" duration="61.00" routeLength="600.94" waitingTime="0.00" waitingCount="0" stopTime="0.00" timeLoss="4.89" rerouteNo="1" devices="tripinfo_Car37 routing_Car37" vType="Car" speedFactor="0.90" vaporized=""/>
    <tripinfo id="Motorcycle31" depart="743.00" departLane="9_0_0" departPos="2.30" departSpeed="10.30" departDelay="0.00" arrival="787.00" arrivalLane="2_1_1" arrivalPos="100.00" arrivalSpeed="9.88" duration="44.00" routeLength="401.09" waitingTime="0.00" waitingCount="0" stopTime="0.00" timeLoss="7.41" rerouteNo="1" devices="tripinfo_Motorcycle31 routing_Motorcycle31" vType="Motorcycle" speedFactor="1.03" vaporized=""/>
    <tripinfo id="Car44" depart="785.00" departLane="1_0_1" departPos="5.10" departSpeed="11.49" departDelay="0.00" arrival="810.00" arrivalLane="1_1_1" arrivalPos="100.00" arrivalSpeed="10.92" duration="25.00" routeLength="199.57" waitingTime="0.00" waitingCount="0" stopTime="0.00" timeLoss="5.85" rerouteNo="0" devices="tripinfo_Car44 routing_Car44" vType="Car" speedFactor="0.96" vaporized=""/>
    <tripinfo id="Car43" depart="791.00" departLane="1_0_1" departPos="5.10" departSpeed="13.10" departDelay="0.00" arrival="812.00" arrivalLane="1_1_1" arrivalPos="100.00" arrivalSpeed="12.29" duration="21.00" routeLength="199.57" waitingTime="0.00" waitingCount="0" stopTime="0.00" timeLoss="4.36" rerouteNo="0" devices="tripinfo_Car43 routing_Car43" vType="Car" speedFactor="1.09" vaporized=""/>
    <tripinfo id="Car40" depart="825.00" departLane="5_0_0" departPos="5.10" departSpeed="12.52" departDelay="0.00" arrival="876.00" arrivalLane="1_1_0" arrivalPos="100.00" arrivalSpeed="11.71" duration="51.00" routeLength="600.96" waitingTime="0.00" waitingCount="0" stopTime="0.00" timeLoss="2.48" rerouteNo="1" devices="tripinfo_Car40 routing_Car40" vType="Car" speedFactor="1.04" vaporized=""/>
    <tripinfo id="Car35" depart="825.00" departLane="1_0_0" departPos="5.10" departSpeed="13.06" departDelay="0.00" arrival="878.00" arrivalLane="5_1_1" arrivalPos="100.00" arrivalSpeed="12.60" duration="53.00" routeLength="600.94" waitingTime="0.00" waitingCount="0" stopTime="0.00" timeLoss="6.95" rerouteNo="1" devices="tripinfo_Car35 routing_Car35" vType="Car" speedFactor="1.09" vaporized=""/>
    <tripinfo id="Truck47" depart="817.00" departLane="1_0_0" departPos="7.20" departSpeed="12.23" departDelay="0.00" arrival="882.00" arrivalLane="5_1_0" arrivalPos="100.00" arrivalSpeed="11.90" duration="65.00" routeLength="598.84" waitingTime="6.00" waitingCount="1" stopTime="0.00" timeLoss="15.90" rerouteNo="1" devices="tripinfo_Truck47 routing_Truck47" vType="Truck" speedFactor="1.02" vaporized=""/>
    <tripinfo id="Car41" depart="853.00" departLane="5_0_0" departPos="5.10" departSpeed="11.97" departDelay="0.00" arrival="932.00" arrivalLane="1_1_0" arrivalPos="100.00" arrivalSpeed="11.49" duration="79.00" routeLength="600.96" waitingTime="16.00" waitingCount="2" stopTime="0.00" timeLoss="27.94" rerouteNo="1" devices="tripinfo_Car41 routing_Car41" vType="Car" speedFactor="1.00" vaporized=""/>
    <tripinfo id="Van46" depart="891.00" departLane="8_0_0" departPos="5.10" departSpeed="9.00" departDelay="0.00" arrival="946.00" arrivalLane="5_1_0" arrivalPos="100.00" arrivalSpeed="9.76" duration="55.00" routeLength="399.74" waitingTime="9.00" waitingCount="1" stopTime="0.00" timeLoss="15.43" rerouteNo="1" devices="tripinfo_Van46 routing_Van46" vType="Van" speedFactor="0.90" vaporized=""/>
    <tripinfo id="Motorcycle48" depart="912.00" departLane="8_0_0" departPos="2.30" departSpeed="8.77" departDelay="0.00" arrival="961.00" arrivalLane="5_1_0" arrivalPos="100.00" arrivalSpeed="10.29" duration="49.00" routeLength="402.54" waitingTime="0.00" waitingCount="0" stopTime="0.00" timeLoss="8.06" rerouteNo="1" devices="tripinfo_Motorcycle48 routing_Motorcycle48" vType="Motorcycle" speedFactor="0.88" vaporized=""/>
    <tripinfo id="Car59" depart="980.00" departLane="6_0_1" departPos="5.10" departSpeed="12.86" departDelay="0.00" arrival="998.00" arrivalLane="5_1_1" arrivalPos="100.00" arrivalSpeed="13.96" duration="18.00" routeLength="214.27" waitingTime="0.00" waitingCount="0" stopTime="0.00" timeLoss="1.37" rerouteNo="0" devices="tripinfo_Car59 routing_Car59" vType="Car" speedFactor="1.17" vaporized=""/>
    <tripinfo id="Motorcycle50" depart="965.00" departLane="5_0_0" departPos="2.30" departSpeed="10.26" departDelay="0.00" arrival="1017.00" arrivalLane="9_1_0" arrivalPos="100.00" arrivalSpeed="7.74" duration="52.00" routeLength="402.59" waitingTime="0.00" waitingCount="0" stopTime="0.00" timeLoss="9.65" rerouteNo="1" devices="tripinfo_Motorcycle50 routing_Motorcycle50" vType="Motorcycle" speedFactor="0.85" vaporized=""/>
    <tripinfo id="Car51" depart="957.00" departLane="1_0_1" departPos="5.10" departSpeed="10.20" departDelay="0.00" arrival="1025.00" arrivalLane="6_1_1" arrivalPos="100.00" arrivalSpeed="8.46" duration="68.00" routeLength="599.48" waitingTime="0.00" waitingCount="0" stopTime="0.00" timeLoss="7.42" rerouteNo="1" devices="tripinfo_Car51 routing_Car51" vType="Car" speedFactor="0.85" vaporized=""/>
    <tripinfo id="Motorcycle49" depart="1029.00" departLane="5_0_0" departPos="2.30" departSpeed="12.20" departDelay="0.00" arrival="1070.00" arrivalLane="9_1_0" arrivalPos="100.00" arrivalSpeed="7.43" duration="41.00" routeLength="402.59" waitingTime="0.00" waitingCount="0" stopTime="0.00" timeLoss="5.40" rerouteNo="1" devices="tripinfo_Motorcycle49 routing_Motorcycle49" vType="Motorcycle" speedFactor="1.02" vaporized=""/>
    <tripinfo id="Car53" depart="1031.00" departLane="8_0_0" departPos="5.10" departSpeed="10.96" departDelay="0.00" arrival="1082.00" arrivalLane="5_1_0" arrivalPos="100.00" arrivalSpeed="11.97" duration="51.00" routeLength="399.74" waitingTime="9.00" waitingCount="1" stopTime="0.00" timeLoss="18.48" rerouteNo="1" devices="tripinfo_Car53 routing_Car53" vType="Car" speedFactor="1.10" vaporized=""/>
    <tripinfo id="Car58" depart="1094.00" departLane="1_0_0" departPos="5.10" departSpeed="12.04" departDelay="0.00" arrival="1115.00" arrivalLane="2_1_0" arrivalPos="100.00" arrivalSpeed="10.67" duration="21.00" routeLength="203.93" waitingTime="0.00" waitingCount="0" stopTime="0.00" timeLoss="1.68" rerouteNo="0" devices="tripinfo_Car58 routing_Car58" vType="Car" speedFactor="1.00" vaporized=""/>
    <tripinfo id="Car57" depart="1108.00" departLane="5_0_0" departPos="5.10" departSpeed="11.95" departDelay="0.00" arrival="1147.00" arrivalLane="9_1_0" arrivalPos="100.00" arrivalSpeed="9.59" duration="39.00" routeLength="399.79" waitingTime="0.00" waitingCount="0" stopTime="0.00" timeLoss="3.15" rerouteNo="1" devices="tripinfo_Car57 routing_Car57" vType="Car" speedFactor="1.00" vaporized=""/>
    <tripinfo id="Car52" depart="1123.00" departLane="1_0_1" departPos="5.10" departSpeed="13.71" departDelay="0.00" arrival="1185.00" arrivalLane="5_1_0" arrivalPos="100.00" arrivalSpeed="13.47" duration="62.00" routeLength="600.94" waitingTime="10.00" waitingCount="1" stopTime="0.00" timeLoss="17.75" rerouteNo="1" devices="tripinfo_Car52 routing_Car52" vType="Car" speedFactor="1.14" vaporized=""/>
    <tripinfo id="Car55" depart="1122.00" departLane="1_0_0" departPos="5.10" departSpeed="10.79" departDelay="0.00" arrival="1186.00" arrivalLane="5_1_1" arrivalPos="100.00" arrivalSpeed="10.46" duration="64.00" routeLength="600.94" waitingTime="0.00" waitingCount="0" stopTime="0.00" timeLoss="7.78" rerouteNo="1" devices="tripinfo_Car55 routing_Car55" vType="Car" speedFactor="0.90" vaporized=""/>
    <tripinfo id="Car54" depart="1151.00" departLane="1_0_0" departPos="5.10" departSpeed="12.28" departDelay="0.00" arrival="1226.00" arrivalLane="5_1_0" arrivalPos="100.00" arrivalSpeed="11.11" duration="75.00" routeLength="600.94" waitingTime="15.00" waitingCount="2" stopTime="0.00" timeLoss="26.04" rerouteNo="1" devices="tripinfo_Car54 routing_Car54" vType="Car" speedFactor="1.02" vaporized=""/>
    <tripinfo id="Car56" depart="1164.00" departLane="5_0_0" departPos="5.10" departSpeed="11.63" departDelay="0.00" arrival="1229.00" arrivalLane="1_1_0" arrivalPos="100.00" arrivalSpeed="11.00" duration="65.00" routeLength="600.96" waitingTime="5.00" waitingCount="1" stopTime="0.00" timeLoss="12.89" rerouteNo="1" devices="tripinfo_Car56 routing_Car56" vType="Car" speedFactor="0.97" vaporized=""/>
    <tripinfo id="Car71" depart="1200.00" departLane="8_0_0" departPos="5.10" departSpeed="10.82" departDelay="0.00" arrival="1236.00" arrivalLane="5_1_0" arrivalPos="100.00" arrivalSpeed="12.20" duration="36.00" routeLength="399.74" waitingTime="0.00" waitingCount="0" stopTime="0.00" timeLoss="2.98" rerouteNo="1" devices="tripinfo_Car71 routing_Car71" vType="Car" speedFactor="1.08" vaporized=""/>
    <tripinfo id="Motorcycle63" depart="1223.00" departLane="9_0_0" departPos="2.30" departSpeed="11.19" departDelay="0.00" arrival="1261.00" arrivalLane="1_1_0" arrivalPos="100.00" arrivalSpeed="10.67" duration="38.00" routeLength="402.54" waitingTime="0.00" waitingCount="0" stopTime="0.00" timeLoss="5.71" rerouteNo="1" devices="tripinfo_Motorcycle63 routing_Motorcycle63" vType="Motorcycle" speedFactor="1.12" vaporized=""/>
    <tripinfo id="Car84" depart="1233.00" departLane="2_0_1" departPos="5.10" departSpeed="10.86" departDelay="0.00" arrival="1270.00" arrivalLane="1_1_1" arrivalPos="100.00" arrivalSpeed="10.83" duration="37.00" routeLength="214.26" waitingTime="12.00" waitingCount="1" stopTime="0.00" timeLoss="17.45" rerouteNo="0" devices="tripinfo_Car84 routing_Car84" vType="Car" speedFactor="0.99" vaporized=""/>
    <tripinfo id="Truck87" depart="1256.00" departLane="1_0_0" departPos="7.20" departSpeed="11.29" departDelay="0.00" arrival="1302.00" arrivalLane="8_1_0" arrivalPos="100.00" arrivalSpeed="9.09" duration="46.00" routeLength="397.67" waitingTime="0.00" waitingCount="0" stopTime="0.00" timeLoss="7.95" rerouteNo="1" devices="tripinfo_Truck87 routing_Truck87" vType="Truck" speedFactor="0.94" vaporized=""/>
    <tripinfo id="Car72" depart="1229.00" departLane="1_0_0" departPos="5.10" departSpeed="12.19" departDelay="0.00" arrival="1304.00" arrivalLane="5_1_0" arrivalPos="100.00" arrivalSpeed="11.62" duration="75.00" routeLength="600.94" waitingTime="11.00" waitingCount="1" stopTime="0.00" timeLoss="25.38" rerouteNo="1" devices="tripinfo_Car72 routing_Car72" vType="Car" speedFactor="1.02" vaporized=""/>
    <tripinfo id="Car85" depart="1281.00" departLane="1_0_0" departPos="5.10" departSpeed="10.98" departDelay="0.00" arrival="1304.00" arrivalLane="2_1_0" arrivalPos="100.00" arrivalSpeed="8.92" duration="23.00" routeLength="203.93" waitingTime="0.00" waitingCount="0" stopTime="0.00" timeLoss="2.11" rerouteNo="0" devices="tripinfo_Car85 routing_Car85" vType="Car" speedFactor="0.91" vaporized=""/>
    <tripinfo id="Car76" depart="1288.00" departLane="5_0_0" departPos="5.10" departSpeed="12.48" departDelay="0.00" arrival="1330.00" arrivalLane="9_1_0" arrivalPos="100.00" arrivalSpeed="10.07" duration="42.00" routeLength="399.79" waitingTime="1.00" waitingCount="1" stopTime="0.00" timeLoss="7.01" rerouteNo="1" devices="tripinfo_Car76 routing_Car76" vType="Car" speedFactor="1.04" vaporized=""/>
    <tripinfo id="Car69" depart="1244.00" departLane="1_0_0" departPos="5.10" departSpeed="11.25" departDelay="0.00" arrival="1337.00" arrivalLane="5_1_0" arrivalPos="100.00" arrivalSpeed="10.56" duration="93.00" routeLength="600.94" waitingTime="27.00" waitingCount="2" stopTime="0.00" timeLoss="38.83" rerouteNo="1" devices="tripinfo_Car69 routing_Car69" vType="Car" speedFactor="0.94" vaporized=""/>
    <tripinfo id="Car75" depart="1260.00" departLane="8_0_0" departPos="5.10" departSpeed="9.07" departDelay="0.00" arrival="1343.00" arrivalLane="1_1_0" arrivalPos="100.00" arrivalSpeed="10.76" duration="83.00" routeLength="768.84" waitingTime="0.00" waitingCount="0" stopTime="0.00" timeLoss="8.56" rerouteNo="1" devices="tripinfo_Car75 routing_Car75" vType="Car" speedFactor="0.91" vaporized=""/>
    <tripinfo id="Motorcycle65" depart="1343.00" departLane="2_0_1" departPos="2.30" departSpeed="10.34" departDelay="0.00" arrival="1367.00" arrivalLane="1_1_1" arrivalPos="100.00" arrivalSpeed="8.70" duration="24.00" routeLength="217.06" waitingTime="0.00" waitingCount="0" stopTime="0.00" timeLoss="3.39" rerouteNo="0" devices="tripinfo_Motorcycle65 routing_Motorcycle65" vType="Motorcycle" speedFactor="0.94" vaporized=""/>
    <tripinfo id="Motorcycle60" depart="1314.00" departLane="8_0_0" departPos="2.30" departSpeed="10.22" departDelay="0.00" arrival="1371.00" arrivalLane="5_1_0" arrivalPos="100.00" arrivalSpeed="11.39" duration="57.00" routeLength="402.54" waitingTime="12.00" waitingCount="1" stopTime="0.00" timeLoss="21.80" rerouteNo="1" devices="tripinfo_Motorcycle60 routing_Motorcycle60" vType="Motorcycle" speedFactor="1.02" vaporized=""/>